 Entering Gaussian System, Link 0=g16
 Input=h3+.com
 Output=h3+.log
 Initial command:
 /Volumes/CaseSensitive/gaussian/g16-current/g16/local/l1.exe "/tmp/Gau-22640.inp" -scrdir="/tmp/"
 Entering Link 1 = /Volumes/CaseSensitive/gaussian/g16-current/g16/local/l1.exe PID=     22641.
  
 Copyright (c) 1988,1990,1992,1993,1995,1998,2003,2009,2016,
            Gaussian, Inc.  All Rights Reserved.
  
 This is part of the Gaussian(R) 16 program.  It is based on
 the Gaussian(R) 09 system (copyright 2009, Gaussian, Inc.),
 the Gaussian(R) 03 system (copyright 2003, Gaussian, Inc.),
 the Gaussian(R) 98 system (copyright 1998, Gaussian, Inc.),
 the Gaussian(R) 94 system (copyright 1995, Gaussian, Inc.),
 the Gaussian 92(TM) system (copyright 1992, Gaussian, Inc.),
 the Gaussian 90(TM) system (copyright 1990, Gaussian, Inc.),
 the Gaussian 88(TM) system (copyright 1988, Gaussian, Inc.),
 the Gaussian 86(TM) system (copyright 1986, Carnegie Mellon
 University), and the Gaussian 82(TM) system (copyright 1983,
 Carnegie Mellon University). Gaussian is a federally registered
 trademark of Gaussian, Inc.
  
 This software contains proprietary and confidential information,
 including trade secrets, belonging to Gaussian, Inc.
  
 This software is provided under written license and may be
 used, copied, transmitted, or stored only in accord with that
 written license.
  
 The following legend is applicable only to US Government
 contracts under FAR:
  
                    RESTRICTED RIGHTS LEGEND
  
 Use, reproduction and disclosure by the US Government is
 subject to restrictions as set forth in subparagraphs (a)
 and (c) of the Commercial Computer Software - Restricted
 Rights clause in FAR 52.227-19.
  
 Gaussian, Inc.
 340 Quinnipiac St., Bldg. 40, Wallingford CT 06492
  
  
 ---------------------------------------------------------------
 Warning -- This program may not be used in any manner that
 competes with the business of Gaussian, Inc. or will provide
 assistance to any competitor of Gaussian, Inc.  The licensee
 of this program is prohibited from giving any competitor of
 Gaussian, Inc. access to this program.  By using this program,
 the user acknowledges that Gaussian, Inc. is engaged in the
 business of creating and licensing software in the field of
 computational chemistry and represents and warrants to the
 licensee that it is not a competitor of Gaussian, Inc. and that
 it will not use this program in any manner prohibited above.
 ---------------------------------------------------------------
  

 Cite this work as:
 Gaussian 16, Revision A.03,
 M. J. Frisch, G. W. Trucks, H. B. Schlegel, G. E. Scuseria, 
 M. A. Robb, J. R. Cheeseman, G. Scalmani, V. Barone, 
 G. A. Petersson, H. Nakatsuji, X. Li, M. Caricato, A. V. Marenich, 
 J. Bloino, B. G. Janesko, R. Gomperts, B. Mennucci, H. P. Hratchian, 
 J. V. Ortiz, A. F. Izmaylov, J. L. Sonnenberg, D. Williams-Young, 
 F. Ding, F. Lipparini, F. Egidi, J. Goings, B. Peng, A. Petrone, 
 T. Henderson, D. Ranasinghe, V. G. Zakrzewski, J. Gao, N. Rega, 
 G. Zheng, W. Liang, M. Hada, M. Ehara, K. Toyota, R. Fukuda, 
 J. Hasegawa, M. Ishida, T. Nakajima, Y. Honda, O. Kitao, H. Nakai, 
 T. Vreven, K. Throssell, J. A. Montgomery, Jr., J. E. Peralta, 
 F. Ogliaro, M. J. Bearpark, J. J. Heyd, E. N. Brothers, K. N. Kudin, 
 V. N. Staroverov, T. A. Keith, R. Kobayashi, J. Normand, 
 K. Raghavachari, A. P. Rendell, J. C. Burant, S. S. Iyengar, 
 J. Tomasi, M. Cossi, J. M. Millam, M. Klene, C. Adamo, R. Cammi, 
 J. W. Ochterski, R. L. Martin, K. Morokuma, O. Farkas, 
 J. B. Foresman, and D. J. Fox, Gaussian, Inc., Wallingford CT, 2016.
 
 ******************************************
 Gaussian 16:  EM64M-G16RevA.03 25-Dec-2016
                16-Jun-2022 
 ******************************************
 %chk=h3+.chk
 -----------------------------------------------------
 #p rhf/gen nosymm int=noraff output=matrix scf=conven
 -----------------------------------------------------
 1/38=1,172=1/1;
 2/12=2,15=1,17=6,18=5,40=1/2;
 3/5=7,25=20,28=1,30=1,116=1/1,2,3,8,20;
 4//1;
 5/5=1,29=1/2;
 6/7=2,8=2,9=2,10=2,28=1/1;
 99/5=1,6=100000,9=1/99;
 Leave Link    1 at Thu Jun 16 16:01:32 2022, MaxMem=           0 cpu:               0.0 elap:               0.0
 (Enter /Volumes/CaseSensitive/gaussian/g16-current/g16/l101.exe)
 ----------------------------------------------
 h3+ sto-3g for h1&h2; h3 no basis sets applied
 ----------------------------------------------
 Symbolic Z-matrix:
 Charge =  1 Multiplicity = 1
 H                     0.        0.        0. 
 H                     0.        0.        0.6 
 H(znuc=-1.0)          0.        0.        1.2 
 
 ITRead=  0  0  0
 MicOpt= -1 -1 -1
 NAtoms=      3 NQM=        3 NQMF=       0 NMMI=      0 NMMIF=      0
                NMic=       0 NMicF=      0.
                    Isotopes and Nuclear Properties:
 (Nuclear quadrupole moments (NQMom) in fm**2, nuclear magnetic moments (NMagM)
  in nuclear magnetons)

  Atom         1           2           3
 IAtWgt=           1           1           1
 AtmWgt=   1.0078250   1.0078250   1.0078250
 NucSpn=           1           1           1
 AtZEff=  -0.0000000  -0.0000000  -0.0000000
 NQMom=    0.0000000   0.0000000   0.0000000
 NMagM=    2.7928460   2.7928460   2.7928460
 AtZNuc=   1.0000000   1.0000000  -1.0000000
 Leave Link  101 at Thu Jun 16 16:01:32 2022, MaxMem=   104857600 cpu:               0.1 elap:               0.1
 (Enter /Volumes/CaseSensitive/gaussian/g16-current/g16/l202.exe)
                          Input orientation:                          
 ---------------------------------------------------------------------
 Center     Atomic      Atomic             Coordinates (Angstroms)
 Number     Number       Type             X           Y           Z
 ---------------------------------------------------------------------
      1          1           0        0.000000    0.000000    0.000000
      2          1           0        0.000000    0.000000    0.600000
      3          1           0        0.000000    0.000000    1.200000
 ---------------------------------------------------------------------
                    Distance matrix (angstroms):
                    1          2          3
     1  H    0.000000
     2  H    0.600000   0.000000
     3  H    1.200000   0.600000   0.000000
 Symmetry turned off by external request.
 Stoichiometry    H3(1+)
 Framework group  D*H[O(H),C*(H.H)]
 Deg. of freedom     1
 Full point group                 D*H     NOp   8
 Rotational constants (GHZ):           0.0000000         696.4654229         696.4654229
 Leave Link  202 at Thu Jun 16 16:01:32 2022, MaxMem=   104857600 cpu:               0.0 elap:               0.0
 (Enter /Volumes/CaseSensitive/gaussian/g16-current/g16/l301.exe)
 General basis read from cards:  (5D, 7F)
 Centers:       1      2
 sto-3g
 ****
 Warning:  center   3 has no basis functions!
 Ernie: Thresh=  0.10000D-02 Tol=  0.10000D-05 Strict=F.
     2 basis functions,     6 primitive gaussians,     2 cartesian basis functions
     1 alpha electrons        1 beta electrons
       nuclear repulsion energy        -0.4409810091 Hartrees.
 IExCor=    0 DFT=F Ex=HF Corr=None ExCW=0 ScaHFX=  1.000000
 ScaDFX=  1.000000  1.000000  1.000000  1.000000 ScalE2=  1.000000  1.000000
 IRadAn=      5 IRanWt=     -1 IRanGd=            0 ICorTp=0 IEmpDi=  4
 NAtoms=    3 NActive=    3 NUniq=    3 SFac= 1.00D+00 NAtFMM=   60 NAOKFM=F Big=F
 Integral buffers will be    131072 words long.
 Regular integral format.
 Two-electron integral symmetry is turned off.
 Leave Link  301 at Thu Jun 16 16:01:32 2022, MaxMem=   104857600 cpu:               0.0 elap:               0.0
 (Enter /Volumes/CaseSensitive/gaussian/g16-current/g16/l302.exe)
 NPDir=0 NMtPBC=     1 NCelOv=     1 NCel=       1 NClECP=     1 NCelD=      1
         NCelK=      1 NCelE2=     1 NClLst=     1 CellRange=     0.0.
 One-electron integrals computed using PRISM.
 NBasis=     2 RedAO= T EigKep=  2.49D-01  NBF=     2
 NBsUse=     2 1.00D-06 EigRej= -1.00D+00 NBFU=     2
 Leave Link  302 at Thu Jun 16 16:01:32 2022, MaxMem=   104857600 cpu:               0.0 elap:               0.1
 (Enter /Volumes/CaseSensitive/gaussian/g16-current/g16/l303.exe)
 DipDrv:  MaxL=1.
 Leave Link  303 at Thu Jun 16 16:01:32 2022, MaxMem=   104857600 cpu:               0.0 elap:               0.0
 (Enter /Volumes/CaseSensitive/gaussian/g16-current/g16/l308.exe)
 Leave Link  308 at Thu Jun 16 16:01:32 2022, MaxMem=   104857600 cpu:               0.0 elap:               0.0
 (Enter /Volumes/CaseSensitive/gaussian/g16-current/g16/l320.exe)
 Enter DskPsm, NBasis=   2 NBas6D=   2 NShell=   2 IDoSP=4.
 Out2e will use a cutoff of  1.00D-10
 FoFCou: FMM=F IPFlag=           0 FMFlag=           0 FMFlg1=           0
         NFxFlg=           0 DoJE=F BraDBF=F KetDBF=F FulRan=T
         wScrn=  0.000000 ICntrl=       600 IOpCl=  9 I1Cent=           0 NGrid=           0
         NMat0=    0 NMatS0=      0 NMatT0=    0 NMatD0=    0 NMtDS0=    0 NMtDT0=    0
 Symmetry not used in FoFCou.
            6 integrals produced for a total of            6.
 Leave Link  320 at Thu Jun 16 16:01:32 2022, MaxMem=   104857600 cpu:               0.0 elap:               0.0
 (Enter /Volumes/CaseSensitive/gaussian/g16-current/g16/local/l401.exe)
 ExpMin= 1.69D-01 ExpMax= 3.43D+00 ExpMxC= 3.43D+00 IAcc=3 IRadAn=         5 AccDes= 0.00D+00
 Harris functional with IExCor=  205 and IRadAn=       5 diagonalized for initial guess.
 HarFok:  IExCor=  205 AccDes= 0.00D+00 IRadAn=         5 IDoV= 1 UseB2=F ITyADJ=14
 ICtDFT=  3500011 ScaDFX=  1.000000  1.000000  1.000000  1.000000
 FoFCou: FMM=F IPFlag=           0 FMFlag=      100000 FMFlg1=           0
         NFxFlg=           0 DoJE=T BraDBF=F KetDBF=T FulRan=T
         wScrn=  0.000000 ICntrl=       500 IOpCl=  0 I1Cent=   200000004 NGrid=           0
         NMat0=    1 NMatS0=      1 NMatT0=    0 NMatD0=    1 NMtDS0=    0 NMtDT0=    0
 Symmetry not used in FoFCou.
 Harris En= -1.71945503070957    
 JPrj=0 DoOrth=F DoCkMO=F.
 Leave Link  401 at Thu Jun 16 16:01:33 2022, MaxMem=   104857600 cpu:               0.1 elap:               0.1
 (Enter /Volumes/CaseSensitive/gaussian/g16-current/g16/local/l502.exe)
 DoDFTU:  F
 DoIMOM:                        0
 Two-electron integral symmetry not used.
 Closed shell SCF:
 Using DIIS extrapolation, IDIIS=  1040.
 Unsorted integral processing.
 NGot=   104857600 LenX=   104594109 LenY=   104593227
 Requested convergence on RMS density matrix=1.00D-08 within 128 cycles.
 Requested convergence on MAX density matrix=1.00D-06.
 Requested convergence on             energy=1.00D-06.
 No special actions if energy rises.

 Cycle   1  Pass 1  IDiag  1:
 E= -1.30316418697967    
 DIIS: error= 8.10D-02 at cycle   1 NSaved=   1.
 NSaved= 1 IEnMin= 1 EnMin= -1.30316418697967     IErMin= 1 ErrMin= 8.10D-02
 ErrMax= 8.10D-02  0.00D+00 EMaxC= 1.00D-01 BMatC= 2.62D-02 BMatP= 2.62D-02
 IDIUse=3 WtCom= 1.90D-01 WtEn= 8.10D-01
 Coeff-Com:  0.100D+01
 Coeff-En:   0.100D+01
 Coeff:      0.100D+01
 Gap=     1.578 Goal=   None    Shift=    0.000
 GapD=    1.578 DampG=2.000 DampE=0.500 DampFc=1.0000 IDamp=-1.
 RMSDP=1.34D-01 MaxDP=2.15D-01              OVMax= 0.00D+00

 Cycle   2  Pass 1  IDiag  1:
 E= -1.34085195541126     Delta-E=       -0.037687768432 Rises=F Damp=F
 DIIS: error= 1.10D-02 at cycle   2 NSaved=   2.
 NSaved= 2 IEnMin= 2 EnMin= -1.34085195541126     IErMin= 2 ErrMin= 1.10D-02
 ErrMax= 1.10D-02  0.00D+00 EMaxC= 1.00D-01 BMatC= 4.88D-04 BMatP= 2.62D-02
 IDIUse=3 WtCom= 8.90D-01 WtEn= 1.10D-01
 Coeff-Com: -0.158D+00 0.116D+01
 Coeff-En:   0.000D+00 0.100D+01
 Coeff:     -0.140D+00 0.114D+01
 Gap=     1.646 Goal=   None    Shift=    0.000
 RMSDP=1.87D-02 MaxDP=3.08D-02 DE=-3.77D-02 OVMax= 0.00D+00

 Cycle   3  Pass 1  IDiag  1:
 E= -1.34153164991701     Delta-E=       -0.000679694506 Rises=F Damp=F
 DIIS: error= 4.21D-05 at cycle   3 NSaved=   3.
 NSaved= 3 IEnMin= 3 EnMin= -1.34153164991701     IErMin= 3 ErrMin= 4.21D-05
 ErrMax= 4.21D-05  0.00D+00 EMaxC= 1.00D-01 BMatC= 7.08D-09 BMatP= 4.88D-04
 IDIUse=1 WtCom= 1.00D+00 WtEn= 0.00D+00
 Large coefficients: NSaved=  3 BigCof=    0.00 CofMax=   10.00 Det=-1.08D-19
 Inversion failed.  Reducing to  2 matrices.
 Coeff-Com: -0.382D-02 0.100D+01
 Coeff:     -0.382D-02 0.100D+01
 Gap=     1.645 Goal=   None    Shift=    0.000
 RMSDP=7.08D-05 MaxDP=1.17D-04 DE=-6.80D-04 OVMax= 0.00D+00

 Cycle   4  Pass 1  IDiag  1:
 E= -1.34153165973187     Delta-E=       -0.000000009815 Rises=F Damp=F
 DIIS: error= 5.65D-08 at cycle   4 NSaved=   3.
 NSaved= 3 IEnMin= 3 EnMin= -1.34153165973187     IErMin= 3 ErrMin= 5.65D-08
 ErrMax= 5.65D-08  0.00D+00 EMaxC= 1.00D-01 BMatC= 1.28D-14 BMatP= 7.08D-09
 IDIUse=1 WtCom= 1.00D+00 WtEn= 0.00D+00
 Large coefficients: NSaved=  3 BigCof=    0.00 CofMax=   10.00 Det= 0.00D+00
 Inversion failed.  Reducing to  2 matrices.
 Coeff-Com:  0.134D-02 0.999D+00
 Coeff:      0.134D-02 0.999D+00
 Gap=     1.645 Goal=   None    Shift=    0.000
 RMSDP=9.49D-08 MaxDP=1.56D-07 DE=-9.81D-09 OVMax= 0.00D+00

 Cycle   5  Pass 1  IDiag  1:
 E= -1.34153165973189     Delta-E=       -0.000000000000 Rises=F Damp=F
 DIIS: error= 2.85D-13 at cycle   5 NSaved=   3.
 NSaved= 3 IEnMin= 3 EnMin= -1.34153165973189     IErMin= 3 ErrMin= 2.85D-13
 ErrMax= 2.85D-13  0.00D+00 EMaxC= 1.00D-01 BMatC= 3.24D-25 BMatP= 1.28D-14
 IDIUse=1 WtCom= 1.00D+00 WtEn= 0.00D+00
 Coeff-Com:  0.000D+00 0.000D+00 0.100D+01
 Coeff:      0.000D+00 0.000D+00 0.100D+01
 Gap=     1.645 Goal=   None    Shift=    0.000
 RMSDP=4.19D-13 MaxDP=6.91D-13 DE=-1.75D-14 OVMax= 0.00D+00

 SCF Done:  E(RHF) =  -1.34153165973     A.U. after    5 cycles
            NFock=  5  Conv=0.42D-12     -V/T= 2.0278
 KE= 1.305293749088D+00 PE=-2.925173877977D+00 EE= 7.193294782578D-01
 Leave Link  502 at Thu Jun 16 16:01:33 2022, MaxMem=   104857600 cpu:               0.0 elap:               0.0
 (Enter /Volumes/CaseSensitive/gaussian/g16-current/g16/l601.exe)
 Copying SCF densities to generalized density rwf, IOpCl= 0 IROHF=0.

 **********************************************************************

            Population analysis using the SCF density.

 **********************************************************************

 Alpha  occ. eigenvalues --   -0.09061
 Alpha virt. eigenvalues --    1.55462
          Condensed to atoms (all electrons):
               1          2          3
     1  H    1.162730   0.333782   0.000000
     2  H    0.333782   0.169707   0.000000
     3  H    0.000000   0.000000   0.000000
 Mulliken charges:
               1
     1  H   -0.496512
     2  H    0.496512
     3  H   -1.000000
 Sum of Mulliken charges =  -1.00000
 Mulliken charges with hydrogens summed into heavy atoms:
               1
 Electronic spatial extent (au):  <R**2>=              4.5048
 Charge=             -1.0000 electrons
 Dipole moment (field-independent basis, Debye):
    X=              0.0000    Y=              0.0000    Z=             -4.3329  Tot=              4.3329
 Quadrupole moment (field-independent basis, Debye-Ang):
   XX=             -1.8068   YY=             -1.8068   ZZ=             -7.6330
   XY=              0.0000   XZ=              0.0000   YZ=              0.0000
 Traceless Quadrupole moment (field-independent basis, Debye-Ang):
   XX=              1.9421   YY=              1.9421   ZZ=             -3.8842
   XY=              0.0000   XZ=              0.0000   YZ=              0.0000
 Octapole moment (field-independent basis, Debye-Ang**2):
  XXX=              0.0000  YYY=              0.0000  ZZZ=             -8.4215  XYY=              0.0000
  XXY=              0.0000  XXZ=             -0.2818  XZZ=              0.0000  YZZ=              0.0000
  YYZ=             -0.2818  XYZ=              0.0000
 Hexadecapole moment (field-independent basis, Debye-Ang**3):
 XXXX=             -1.4780 YYYY=             -1.4780 ZZZZ=            -11.6913 XXXY=              0.0000
 XXXZ=              0.0000 YYYX=              0.0000 YYYZ=              0.0000 ZZZX=              0.0000
 ZZZY=              0.0000 XXYY=             -0.4927 XXZZ=             -0.6112 YYZZ=             -0.6112
 XXYZ=              0.0000 YYXZ=              0.0000 ZZXY=              0.0000
 N-N=-4.409810091000D-01 E-N=-2.925173877977D+00  KE= 1.305293749088D+00
 No NMR shielding tensors so no spin-rotation constants.
 Leave Link  601 at Thu Jun 16 16:01:33 2022, MaxMem=   104857600 cpu:               0.1 elap:               0.1
 (Enter /Volumes/CaseSensitive/gaussian/g16-current/g16/l9999.exe)
 1\1\GINC-LLANDAWKE\SP\RHF\Gen\H3(1+)\ADAMKINYUA\16-Jun-2022\0\\#p rhf/
 gen nosymm int=noraff output=matrix scf=conven\\h3+ sto-3g for h1&h2; 
 h3 no basis sets applied\\1,1\H,0,0.,0.,0.\H,0,0.,0.,0.6\H,0,0.,0.,1.2
 \\Version=EM64M-G16RevA.03\HF=-1.3415317\RMSD=4.193e-13\Dipole=0.,0.,-
 0.5708732\Quadrupole=1.4438933,1.4438933,-2.8877866,0.,0.,0.\PG=D*H [O
 (H1),C*(H1.H1)]\\@


 ANYONE WHO IS NOT SHOCKED BY QUANTUM THEORY HAS
 NOT UNDERSTOOD IT. -- NIELS BOHR(1885-1962)

 Writing WrtUnf unformatted file "h3+.mat"
 Gaussian matrix elements                                         Version   2 NLab=11 Len12L=8 Len4L=8
 Write SHELL TO ATOM MAP                   from file     0 offset           0 length                   2 to matrix element file.
 Write SHELL TYPES                         from file     0 offset           0 length                   2 to matrix element file.
 Write NUMBER OF PRIMITIVES PER SHELL      from file     0 offset           0 length                   2 to matrix element file.
 Write PRIMITIVE EXPONENTS                 from file     0 offset           0 length                   6 to matrix element file.
 Write CONTRACTION COEFFICIENTS            from file     0 offset           0 length                   6 to matrix element file.
 Write P(S=P) CONTRACTION COEFFICIENTS     from file     0 offset           0 length                   6 to matrix element file.
 Write COORDINATES OF EACH SHELL           from file     0 offset           0 length                   6 to matrix element file.
 Write BONDS PER ATOM                      from file     0 offset           0 length                   3 to matrix element file.
 Write BONDED ATOMS                        from file     0 offset           0 length                   4 to matrix element file.
 Write BOND TYPES                          from file     0 offset           0 length                   4 to matrix element file.
 Write GAUSSIAN SCALARS                    from file   501 offset           0 to matrix element file.
 Write INTEGER ISO                         from file     0 offset           0 length                   3 to matrix element file.
 Write INTEGER SPIN                        from file     0 offset           0 length                   3 to matrix element file.
 Write REAL ZEFFECTIVE                     from file     0 offset           0 length                   3 to matrix element file.
 Write REAL GFACTOR                        from file     0 offset           0 length                   3 to matrix element file.
 Write REAL ZNUCLEAR                       from file     0 offset           0 length                   3 to matrix element file.
 Write NUCLEAR GRADIENT                    from file 10584 offset           0 length                   9 to matrix element file.
 Array NUCLEAR FORCE CONSTANTS              on  file 10585 does not exist.
 Write ELECTRIC DIPOLE MOMENT              from file     0 offset           0 length                   3 to matrix element file.
 Write OVERLAP                             from file   514 offset           0 length                   3 to matrix element file.
 Write CORE HAMILTONIAN ALPHA              from file   515 offset           0 length                   3 to matrix element file.
 Write CORE HAMILTONIAN BETA               from file   515 offset           3 length                   3 to matrix element file.
 Write KINETIC ENERGY                      from file   516 offset           0 length                   3 to matrix element file.
 Write ORTHOGONAL BASIS                    from file   685 offset           0 length                   4 to matrix element file.
 Write DIPOLE INTEGRALS                    from file   518 offset           0 length                   9 to matrix element file.
 Write DIP VEL INTEGRALS                   from file   572 offset           0 length                   9 to matrix element file.
 Write R X DEL INTEGRALS                   from file   572 offset           9 length                   9 to matrix element file.
 Write ALPHA ORBITAL ENERGIES              from file     0 offset           0 length                   2 to matrix element file.
 Write ALPHA MO COEFFICIENTS               from file 10524 offset           0 length                   4 to matrix element file.
 Write ALPHA DENSITY MATRIX                from file 10528 offset           0 length                   3 to matrix element file.
 Write ALPHA SCF DENSITY MATRIX            from file 10528 offset           0 length                   3 to matrix element file.
 Write ALPHA FOCK MATRIX                   from file 10536 offset           0 length                   3 to matrix element file.
 Write REGULAR 2E INTEGRALS                to matrix element file, NR=1 ITotal=           6.
 Job cpu time:       0 days  0 hours  0 minutes  0.6 seconds.
 Elapsed time:       0 days  0 hours  0 minutes  0.6 seconds.
 File lengths (MBytes):  RWF=      6 Int=      1 D2E=      0 Chk=      1 Scr=      1
 Normal termination of Gaussian 16 at Thu Jun 16 16:01:33 2022.
