 Entering Gaussian System, Link 0=/Volumes/CaseSensitive/gaussian/g16-current/g16/g16
 Input=test.com
 Output=test.log
 Initial command:
 /Volumes/CaseSensitive/gaussian/g16-current/g16/local/l1.exe "/tmp/Gau-30353.inp" -scrdir="/tmp/"
 Entering Link 1 = /Volumes/CaseSensitive/gaussian/g16-current/g16/local/l1.exe PID=     30354.
  
 Copyright (c) 1988,1990,1992,1993,1995,1998,2003,2009,2016,
            Gaussian, Inc.  All Rights Reserved.
  
 This is part of the Gaussian(R) 16 program.  It is based on
 the Gaussian(R) 09 system (copyright 2009, Gaussian, Inc.),
 the Gaussian(R) 03 system (copyright 2003, Gaussian, Inc.),
 the Gaussian(R) 98 system (copyright 1998, Gaussian, Inc.),
 the Gaussian(R) 94 system (copyright 1995, Gaussian, Inc.),
 the Gaussian 92(TM) system (copyright 1992, Gaussian, Inc.),
 the Gaussian 90(TM) system (copyright 1990, Gaussian, Inc.),
 the Gaussian 88(TM) system (copyright 1988, Gaussian, Inc.),
 the Gaussian 86(TM) system (copyright 1986, Carnegie Mellon
 University), and the Gaussian 82(TM) system (copyright 1983,
 Carnegie Mellon University). Gaussian is a federally registered
 trademark of Gaussian, Inc.
  
 This software contains proprietary and confidential information,
 including trade secrets, belonging to Gaussian, Inc.
  
 This software is provided under written license and may be
 used, copied, transmitted, or stored only in accord with that
 written license.
  
 The following legend is applicable only to US Government
 contracts under FAR:
  
                    RESTRICTED RIGHTS LEGEND
  
 Use, reproduction and disclosure by the US Government is
 subject to restrictions as set forth in subparagraphs (a)
 and (c) of the Commercial Computer Software - Restricted
 Rights clause in FAR 52.227-19.
  
 Gaussian, Inc.
 340 Quinnipiac St., Bldg. 40, Wallingford CT 06492
  
  
 ---------------------------------------------------------------
 Warning -- This program may not be used in any manner that
 competes with the business of Gaussian, Inc. or will provide
 assistance to any competitor of Gaussian, Inc.  The licensee
 of this program is prohibited from giving any competitor of
 Gaussian, Inc. access to this program.  By using this program,
 the user acknowledges that Gaussian, Inc. is engaged in the
 business of creating and licensing software in the field of
 computational chemistry and represents and warrants to the
 licensee that it is not a competitor of Gaussian, Inc. and that
 it will not use this program in any manner prohibited above.
 ---------------------------------------------------------------
  

 Cite this work as:
 Gaussian 16, Revision A.03,
 M. J. Frisch, G. W. Trucks, H. B. Schlegel, G. E. Scuseria, 
 M. A. Robb, J. R. Cheeseman, G. Scalmani, V. Barone, 
 G. A. Petersson, H. Nakatsuji, X. Li, M. Caricato, A. V. Marenich, 
 J. Bloino, B. G. Janesko, R. Gomperts, B. Mennucci, H. P. Hratchian, 
 J. V. Ortiz, A. F. Izmaylov, J. L. Sonnenberg, D. Williams-Young, 
 F. Ding, F. Lipparini, F. Egidi, J. Goings, B. Peng, A. Petrone, 
 T. Henderson, D. Ranasinghe, V. G. Zakrzewski, J. Gao, N. Rega, 
 G. Zheng, W. Liang, M. Hada, M. Ehara, K. Toyota, R. Fukuda, 
 J. Hasegawa, M. Ishida, T. Nakajima, Y. Honda, O. Kitao, H. Nakai, 
 T. Vreven, K. Throssell, J. A. Montgomery, Jr., J. E. Peralta, 
 F. Ogliaro, M. J. Bearpark, J. J. Heyd, E. N. Brothers, K. N. Kudin, 
 V. N. Staroverov, T. A. Keith, R. Kobayashi, J. Normand, 
 K. Raghavachari, A. P. Rendell, J. C. Burant, S. S. Iyengar, 
 J. Tomasi, M. Cossi, J. M. Millam, M. Klene, C. Adamo, R. Cammi, 
 J. W. Ochterski, R. L. Martin, K. Morokuma, O. Farkas, 
 J. B. Foresman, and D. J. Fox, Gaussian, Inc., Wallingford CT, 2016.
 
 ******************************************
 Gaussian 16:  EM64M-G16RevA.03 25-Dec-2016
                11-Jul-2022 
 ******************************************
 %oldmatrix=h3+.mat
 %chk=h3+.chk
 Opening RunExU unformatted file "h3+.mat"
 Read unf file h3+.mat:
 Label Gaussian matrix elements                                         IVers= 2 NLab=11 Version=EM64M-G16RevA.03
 Title Tile Card Required                                              
 NAtoms=     3 NBasis=     2 NBsUse=     2 ICharg=     1 Multip=     1 NE=     2 Len12L=8 Len4L=8 IOpCl= 0 ICGU=111
 Update /Label/ on disk.
 SHELL TO ATOM MAP                   NI= 1 NR= 0 NTot=       2 LenBuf= 4000 NRI=1 N=       2
 SHELL TYPES                         NI= 1 NR= 0 NTot=       2 LenBuf= 4000 NRI=1 N=       2
 NUMBER OF PRIMITIVES PER SHELL      NI= 1 NR= 0 NTot=       2 LenBuf= 4000 NRI=1 N=       2
 PRIMITIVE EXPONENTS                 NI= 0 NR= 1 NTot=       6 LenBuf= 4000 NRI=1 N=       6
 CONTRACTION COEFFICIENTS            NI= 0 NR= 1 NTot=       6 LenBuf= 4000 NRI=1 N=       6
 P(S=P) CONTRACTION COEFFICIENTS     NI= 0 NR= 1 NTot=       6 LenBuf= 4000 NRI=1 N=       6
 COORDINATES OF EACH SHELL           NI= 0 NR= 1 NTot=       6 LenBuf= 4000 NRI=1 N=       6
 GAUSSIAN SCALARS                    NI= 1 NR= 1 NTot=       7 LenBuf= 2000 NRI=1 N=    1000
 INTEGER ISO                         NI= 1 NR= 0 NTot=       3 LenBuf= 4000 NRI=1 N=       3
 INTEGER SPIN                        NI= 1 NR= 0 NTot=       3 LenBuf= 4000 NRI=1 N=       3
 REAL ZEFFECTIVE                     NI= 0 NR= 1 NTot=       3 LenBuf= 4000 NRI=1 N=       3
 REAL GFACTOR                        NI= 0 NR= 1 NTot=       3 LenBuf= 4000 NRI=1 N=       3
 REAL ZNUCLEAR                       NI= 0 NR= 1 NTot=       3 LenBuf= 4000 NRI=1 N=       3
 NUCLEAR GRADIENT                    NI= 0 NR= 1 NTot=       9 LenBuf= 4000 NRI=1 N=       3       3
 Store file  20584 Len=       9.
 ELECTRIC DIPOLE MOMENT              NI= 0 NR= 1 NTot=       3 LenBuf= 4000 NRI=1 N=       3
 OVERLAP                             NI= 0 NR= 1 NTot=       3 LenBuf= 4000 NRI=1 N=      -2       2
 CORE HAMILTONIAN ALPHA              NI= 0 NR= 1 NTot=       3 LenBuf= 4000 NRI=1 N=      -2       2
 CORE HAMILTONIAN BETA               NI= 0 NR= 1 NTot=       3 LenBuf= 4000 NRI=1 N=      -2       2
 KINETIC ENERGY                      NI= 0 NR= 1 NTot=       3 LenBuf= 4000 NRI=1 N=      -2       2
 ORTHOGONAL BASIS                    NI= 0 NR= 1 NTot=       4 LenBuf= 4000 NRI=1 N=       2       2
 DIPOLE INTEGRALS                    NI= 0 NR= 1 NTot=       9 LenBuf= 4000 NRI=1 N=      -2       2       3
 DIP VEL INTEGRALS                   NI= 0 NR= 1 NTot=       9 LenBuf= 4000 NRI=1 N=      -2       2       3
 R X DEL INTEGRALS                   NI= 0 NR= 1 NTot=       9 LenBuf= 4000 NRI=1 N=      -2       2       3
 ALPHA ORBITAL ENERGIES              NI= 0 NR= 1 NTot=       2 LenBuf= 4000 NRI=1 N=       2
 ALPHA MO COEFFICIENTS               NI= 0 NR= 1 NTot=       4 LenBuf= 4000 NRI=1 N=       2       2
 Store file  20524 Len=       4.
 ALPHA DENSITY MATRIX                NI= 0 NR= 1 NTot=       3 LenBuf= 4000 NRI=1 N=      -2       2
 Store file  20528 Len=       3.
 ALPHA SCF DENSITY MATRIX            NI= 0 NR= 1 NTot=       3 LenBuf= 4000 NRI=1 N=      -2       2
 ALPHA FOCK MATRIX                   NI= 0 NR= 1 NTot=       3 LenBuf= 4000 NRI=1 N=      -2       2
 Store file  20536 Len=       3.
 REGULAR 2E INTEGRALS                NI= 4 NR= 1 NTot=       6 LenBuf=  800 NRI=1 N=      -2      -2      -2       2
 Restore Basis set data, NShell=      2 NPrSh=      6.
 ----------------------------------------------------------------------
 #P hf guess=read scf=(conven,skip) int=noraf nosymm output=matrix # ch
 kbas
 ----------------------------------------------------------------------
 1/38=1,172=1/1;
 2/12=2,15=1,17=6,18=5,40=1/2;
 3/5=7,6=2,25=20,28=1,30=1,67=1,116=-2,161=11/1,2,3,8,20;
 4/5=1,6=220,9=200,129=1/1;
 6/7=2,8=2,9=2,10=2,28=1/1;
 99/5=1,6=100000,9=1/99;
 Leave Link    1 at Mon Jul 11 11:15:15 2022, MaxMem=   104857600 cpu:               0.1 elap:               0.1
 (Enter /Volumes/CaseSensitive/gaussian/g16-current/g16/l101.exe)
 ------------------
 Tile Card Required
 ------------------
 Symbolic Z-matrix:
 Charge =  1 Multiplicity = 1
 H(znuc=1.0000000000000000)  0.        0.        0. 
 H(znuc=1.0000000000000000)  0.        0.        1.3984 
 H(znuc=-1.0000000000000000)  0.        0.        3.09679 
 
 ITRead=  0  0  0
 MicOpt= -1 -1 -1
 NAtoms=      3 NQM=        3 NQMF=       0 NMMI=      0 NMMIF=      0
                NMic=       0 NMicF=      0.
                    Isotopes and Nuclear Properties:
 (Nuclear quadrupole moments (NQMom) in fm**2, nuclear magnetic moments (NMagM)
  in nuclear magnetons)

  Atom         1           2           3
 IAtWgt=           1           1           1
 AtmWgt=   1.0078250   1.0078250   1.0078250
 NucSpn=           1           1           1
 AtZEff=  -0.0000000  -0.0000000  -0.0000000
 NQMom=    0.0000000   0.0000000   0.0000000
 NMagM=    2.7928460   2.7928460   2.7928460
 AtZNuc=   1.0000000   1.0000000  -1.0000000
 Leave Link  101 at Mon Jul 11 11:15:15 2022, MaxMem=   104857600 cpu:               0.1 elap:               0.1
 (Enter /Volumes/CaseSensitive/gaussian/g16-current/g16/l202.exe)
                          Input orientation:                          
 ---------------------------------------------------------------------
 Center     Atomic      Atomic             Coordinates (Angstroms)
 Number     Number       Type             X           Y           Z
 ---------------------------------------------------------------------
      1          1           0        0.000000    0.000000    0.000000
      2          1           0        0.000000    0.000000    1.398397
      3          1           0        0.000000    0.000000    3.096795
 ---------------------------------------------------------------------
                    Distance matrix (angstroms):
                    1          2          3
     1  H    0.000000
     2  H    1.398397   0.000000
     3  H    3.096795   1.698397   0.000000
 Symmetry turned off by external request.
 Stoichiometry    H3(1+)
 Framework group  C*V[C*(HHH)]
 Deg. of freedom     2
 Full point group                 C*V     NOp   4
 Rotational constants (GHZ):           0.0000000         104.2511340         104.2511340
 Leave Link  202 at Mon Jul 11 11:15:15 2022, MaxMem=   104857600 cpu:               0.0 elap:               0.0
 (Enter /Volumes/CaseSensitive/gaussian/g16-current/g16/l301.exe)
 Basis read from chk: "h3+.chk" (5D, 7F)
 No pseudopotential information found on chk file.
 Warning:  center   3 has no basis functions!
     2 basis functions,     6 primitive gaussians,     2 cartesian basis functions
     1 alpha electrons        1 beta electrons
       nuclear repulsion energy        -0.1040365396 Hartrees.
 IExCor=    0 DFT=F Ex=HF Corr=None ExCW=0 ScaHFX=  1.000000
 ScaDFX=  1.000000  1.000000  1.000000  1.000000 ScalE2=  1.000000  1.000000
 IRadAn=      5 IRanWt=     -1 IRanGd=            0 ICorTp=0 IEmpDi=  4
 NAtoms=    3 NActive=    3 NUniq=    3 SFac= 1.00D+00 NAtFMM=   60 NAOKFM=F Big=F
 Integral buffers will be    131072 words long.
 Regular integral format.
 Two-electron integral symmetry is turned off.
 No density basis found on file 20724.
 Leave Link  301 at Mon Jul 11 11:15:15 2022, MaxMem=   104857600 cpu:               0.0 elap:               0.0
 (Enter /Volumes/CaseSensitive/gaussian/g16-current/g16/l302.exe)
 NPDir=0 NMtPBC=     1 NCelOv=     1 NCel=       1 NClECP=     1 NCelD=      1
         NCelK=      1 NCelE2=     1 NClLst=     1 CellRange=     0.0.
 One-electron integrals computed using PRISM.
 Recover linearly independent bfn info from chk, NBsUse=      2.
 NBasis=     2 RedAO= T EigKep=  0.00D+00  NBF=     2
 NBsUse=     2 1.00D-06 EigRej=  0.00D+00 NBFU=     2
 Leave Link  302 at Mon Jul 11 11:15:15 2022, MaxMem=   104857600 cpu:               0.0 elap:               0.1
 (Enter /Volumes/CaseSensitive/gaussian/g16-current/g16/l303.exe)
 DipDrv:  MaxL=1.
 Leave Link  303 at Mon Jul 11 11:15:15 2022, MaxMem=   104857600 cpu:               0.0 elap:               0.0
 (Enter /Volumes/CaseSensitive/gaussian/g16-current/g16/l308.exe)
 Leave Link  308 at Mon Jul 11 11:15:15 2022, MaxMem=   104857600 cpu:               0.0 elap:               0.0
 (Enter /Volumes/CaseSensitive/gaussian/g16-current/g16/l320.exe)
 Enter DskPsm, NBasis=   2 NBas6D=   2 NShell=   2 IDoSP=4.
 Out2e will use a cutoff of  1.00D-10
 FoFCou: FMM=F IPFlag=           0 FMFlag=           0 FMFlg1=           0
         NFxFlg=           0 DoJE=F BraDBF=F KetDBF=F FulRan=T
         wScrn=  0.000000 ICntrl=       600 IOpCl=  9 I1Cent=           0 NGrid=           0
         NMat0=    0 NMatS0=      0 NMatT0=    0 NMatD0=    0 NMtDS0=    0 NMtDT0=    0
 Symmetry not used in FoFCou.
            6 integrals produced for a total of            6.
 Leave Link  320 at Mon Jul 11 11:15:15 2022, MaxMem=   104857600 cpu:               0.0 elap:               0.0
 (Enter /Volumes/CaseSensitive/gaussian/g16-current/g16/local/l401.exe)
 Initial guess from the checkpoint file:  "h3+.chk"
 CmpBas:  ShellC arrays do not match.
 B after Tr=     0.000000    0.000000    0.000000
         Rot=    1.000000    0.000000    0.000000    0.000000 Ang=   0.00 deg.
 Guess basis will be translated and rotated to current coordinates.
 Recover SCF energy =  -1.26872068110     from chk file.
 JPrj=2 DoOrth=F DoCkMO=F.
 Leave Link  401 at Mon Jul 11 11:15:15 2022, MaxMem=   104857600 cpu:               0.1 elap:               0.1
 (Enter /Volumes/CaseSensitive/gaussian/g16-current/g16/l601.exe)
 Copying SCF densities to generalized density rwf, IOpCl= 0 IROHF=0.

 **********************************************************************

            Population analysis using the SCF density.

 **********************************************************************

 Alpha  occ. eigenvalues --   -0.10935
 Alpha virt. eigenvalues --    1.26222
          Condensed to atoms (all electrons):
               1          2          3
     1  H    1.332720   0.185945   0.000000
     2  H    0.185945   0.295390   0.000000
     3  H    0.000000   0.000000   0.000000
 Mulliken charges:
               1
     1  H   -0.518665
     2  H    0.518665
     3  H   -1.000000
 Sum of Mulliken charges =  -1.00000
 Mulliken charges with hydrogens summed into heavy atoms:
               1
 Electronic spatial extent (au):  <R**2>=              7.0087
 Charge=             -1.0000 electrons
 Dipole moment (field-independent basis, Debye):
    X=              0.0000    Y=              0.0000    Z=            -11.3908  Tot=             11.3908
 Quadrupole moment (field-independent basis, Debye-Ang):
   XX=             -1.8702   YY=             -1.8702   ZZ=            -42.3573
   XY=              0.0000   XZ=              0.0000   YZ=              0.0000
 Traceless Quadrupole moment (field-independent basis, Debye-Ang):
   XX=             13.4957   YY=             13.4957   ZZ=            -26.9914
   XY=              0.0000   XZ=              0.0000   YZ=              0.0000
 Octapole moment (field-independent basis, Debye-Ang**2):
  XXX=              0.0000  YYY=              0.0000  ZZZ=           -136.3803  XYY=              0.0000
  XXY=              0.0000  XXZ=             -0.6740  XZZ=              0.0000  YZZ=              0.0000
  YYZ=             -0.6740  XYZ=              0.0000
 Hexadecapole moment (field-independent basis, Debye-Ang**3):
 XXXX=             -1.5717 YYYY=             -1.5717 ZZZZ=           -435.8327 XXXY=              0.0000
 XXXZ=              0.0000 YYYX=              0.0000 YYYZ=              0.0000 ZZZX=              0.0000
 ZZZY=              0.0000 XXYY=             -0.5239 XXZZ=             -1.2726 YYZZ=             -1.2726
 XXYZ=              0.0000 YYXZ=              0.0000 ZZXY=              0.0000
 N-N=-1.040365396334D-01 E-N=-2.707415164634D+00  KE= 1.262432230747D+00
 No NMR shielding tensors so no spin-rotation constants.
 Leave Link  601 at Mon Jul 11 11:15:15 2022, MaxMem=   104857600 cpu:               0.0 elap:               0.0
 (Enter /Volumes/CaseSensitive/gaussian/g16-current/g16/l9999.exe)
 1\1\GINC-LLANDAWKE\SP\RHF\Gen\H3(1+)\ADAMKINYUA\11-Jul-2022\0\\#P hf g
 uess=read scf=(conven,skip) int=noraf nosymm output=matrix # chkbas\\T
 ile Card Required\\1,1\H,0,0.,0.,0.\H,0,0.,0.,1.39839733\H,0,0.,0.,3.0
 9679466\\Version=EM64M-G16RevA.03\HF=-1.2687207\RMSD=3.981e-13\Dipole=
 0.,0.,-1.2719701\Quadrupole=10.0337288,10.0337288,-20.0674576,0.,0.,0.
 \PG=C*V [C*(H1H1H1)]\\@


 A great many people think they are thinking when they
 are merely rearranging their prejudices.
                               -- William James

 Writing WrtUnf unformatted file "h3+.mat"
 Gaussian matrix elements                                         Version   2 NLab=11 Len12L=8 Len4L=8
 Write SHELL TO ATOM MAP                   from file     0 offset           0 length                   2 to matrix element file.
 Write SHELL TYPES                         from file     0 offset           0 length                   2 to matrix element file.
 Write NUMBER OF PRIMITIVES PER SHELL      from file     0 offset           0 length                   2 to matrix element file.
 Write PRIMITIVE EXPONENTS                 from file     0 offset           0 length                   6 to matrix element file.
 Write CONTRACTION COEFFICIENTS            from file     0 offset           0 length                   6 to matrix element file.
 Write P(S=P) CONTRACTION COEFFICIENTS     from file     0 offset           0 length                   6 to matrix element file.
 Write COORDINATES OF EACH SHELL           from file     0 offset           0 length                   6 to matrix element file.
 Write GAUSSIAN SCALARS                    from file   501 offset           0 to matrix element file.
 Write INTEGER ISO                         from file     0 offset           0 length                   3 to matrix element file.
 Write INTEGER SPIN                        from file     0 offset           0 length                   3 to matrix element file.
 Write REAL ZEFFECTIVE                     from file     0 offset           0 length                   3 to matrix element file.
 Write REAL GFACTOR                        from file     0 offset           0 length                   3 to matrix element file.
 Write REAL ZNUCLEAR                       from file     0 offset           0 length                   3 to matrix element file.
 Write NUCLEAR GRADIENT                    from file 10584 offset           0 length                   9 to matrix element file.
 Array NUCLEAR FORCE CONSTANTS              on  file 10585 does not exist.
 Write ELECTRIC DIPOLE MOMENT              from file     0 offset           0 length                   3 to matrix element file.
 Write OVERLAP                             from file   514 offset           0 length                   3 to matrix element file.
 Write CORE HAMILTONIAN ALPHA              from file   515 offset           0 length                   3 to matrix element file.
 Write CORE HAMILTONIAN BETA               from file   515 offset           3 length                   3 to matrix element file.
 Write KINETIC ENERGY                      from file   516 offset           0 length                   3 to matrix element file.
 Write ORTHOGONAL BASIS                    from file   685 offset           0 length                   4 to matrix element file.
 Write DIPOLE INTEGRALS                    from file   518 offset           0 length                   9 to matrix element file.
 Write DIP VEL INTEGRALS                   from file   572 offset           0 length                   9 to matrix element file.
 Write R X DEL INTEGRALS                   from file   572 offset           9 length                   9 to matrix element file.
 Write ALPHA ORBITAL ENERGIES              from file     0 offset           0 length                   2 to matrix element file.
 Write ALPHA MO COEFFICIENTS               from file 10524 offset           0 length                   4 to matrix element file.
 Write ALPHA DENSITY MATRIX                from file 10528 offset           0 length                   3 to matrix element file.
 Write ALPHA SCF DENSITY MATRIX            from file 10528 offset           0 length                   3 to matrix element file.
 Write ALPHA FOCK MATRIX                   from file 10536 offset           0 length                   3 to matrix element file.
 Write REGULAR 2E INTEGRALS                to matrix element file, NR=1 ITotal=           6.
 Job cpu time:       0 days  0 hours  0 minutes  0.6 seconds.
 Elapsed time:       0 days  0 hours  0 minutes  0.5 seconds.
 File lengths (MBytes):  RWF=      5 Int=      1 D2E=      0 Chk=      1 Scr=      1
 Normal termination of Gaussian 16 at Mon Jul 11 11:15:16 2022.
